
     561 atoms

1 atom types

 -200.000 200.000   xlo xhi 
 -200.000 200.000   ylo yhi 
 -200.000 200.000   zlo zhi

 Masses

        1       58.6934

 Atoms

 1  1  155.459 155.109 158.764   
 2  1  150.852 161.451 158.759   
 3  1  155.459 147.27 158.754    
 4  1  148.847 150.306 158.78    
 5  1  148.848 159.914 158.776   
 6  1  148.004 157.532 158.792   
 7  1  152.206 157.473 158.77    
 8  1  155.46 162.948 158.773    
 9  1  154.216 151.284 158.768   
 10 1  162.072 159.912 158.747   
 11 1  160.066 148.766 158.768   
 12 1  157.984 147.336 158.761   
 13 1  150.851 148.767 158.789   
 14 1  162.915 152.686 158.735   
 15 1  163.632 155.108 158.745   
 16 1  160.068 161.45 158.738    
 17 1  158.713 157.472 158.755   
 18 1  162.071 150.304 158.751   
 19 1  147.286 155.11 158.782    
 20 1  152.935 162.882 158.766   
 21 1  158.713 152.745 158.757   
 22 1  156.702 151.284 158.762   
 23 1  154.217 158.934 158.765   
 24 1  151.438 155.109 158.773   
 25 1  159.481 155.108 158.755   
 26 1  152.933 147.336 158.772   
 27 1  157.986 162.882 158.755   
 28 1  148.004 152.687 158.768   
 29 1  162.915 157.531 158.759   
 30 1  156.702 158.933 158.759   
 31 1  152.206 152.745 158.772   
 32 1  153.494 155.747 157.736   
 33 1  155.457 157.173 157.731   
 34 1  154.244 153.439 157.735   
 35 1  156.67 153.438 157.729    
 36 1  157.42 155.746 157.727    
 37 1  155.454 155.108 156.456   
 38 1  157.466 157.875 156.644   
 39 1  155.454 151.687 156.651   
 40 1  153.444 157.876 156.653   
 41 1  152.201 154.051 156.657   
 42 1  155.452 157.222 155.342   
 43 1  154.209 153.397 155.346   
 44 1  157.463 155.761 155.338   
 45 1  156.694 153.397 155.341   
 46 1  158.708 154.051 156.642   
 47 1  153.441 155.761 155.347   
 48 1  155.455 159.284 156.674   
 49 1  153 151.73 156.682        
 50 1  159.427 156.398 156.666   
 51 1  157.909 151.729 156.671   
 52 1  151.483 156.399 156.684   
 53 1  155.449 155.107 154.094   
 54 1  157.497 157.925 154.198   
 55 1  152.144 159.669 157.693   
 56 1  150.096 153.367 157.7     
 57 1  155.449 151.623 154.205   
 58 1  158.771 159.668 157.678   
 59 1  155.456 149.472 157.689   
 60 1  160.818 153.366 157.676   
 61 1  158.762 154.03 154.196    
 62 1  152.136 154.031 154.211   
 63 1  153.402 157.926 154.207   
 64 1  157.484 160.026 155.56    
 65 1  154.204 149.935 155.571   
 66 1  154.202 161.095 157.703   
 67 1  150.922 151.004 157.714   
 68 1  159.991 151.003 157.694   
 69 1  161.538 155.764 157.689   
 70 1  154.191 153.379 152.938   
 71 1  155.447 157.243 152.934   
 72 1  151.403 158.56 155.574    
 73 1  150.147 154.696 155.578   
 74 1  157.478 155.766 152.93    
 75 1  156.702 153.378 152.933   
 76 1  149.376 155.765 157.716   
 77 1  150.152 158.153 157.713   
 78 1  152.946 151.663 154.253   
 79 1  155.45 159.365 154.245    
 80 1  157.952 151.662 154.242   
 81 1  159.499 156.422 154.237   
 82 1  157.959 149.527 157.699   
 83 1  153.421 160.026 155.569   
 84 1  160.763 158.152 157.689   
 85 1  150.918 152.323 155.578   
 86 1  159.502 158.559 155.556   
 87 1  156.699 149.934 155.566   
 88 1  156.713 161.095 157.697   
 89 1  152.954 149.528 157.71    
 90 1  160.757 154.695 155.555   
 91 1  159.986 152.322 155.557   
 92 1  151.4 156.423 154.255     
 93 1  153.415 155.767 152.939   
 94 1  155.453 161.43 155.6      
 95 1  151.736 149.993 155.613   
 96 1  149.44 157.062 155.615    
 97 1  159.168 149.993 155.596   
 98 1  161.465 157.061 155.588   
 99 1  155.444 155.106 151.695   
 100 1 157.515 160.1 153.079     
 101 1 154.183 149.852 153.09    
 102 1 152.11 161.861 156.607    
 103 1 148.779 151.612 156.619   
 104 1 157.511 157.951 151.752   
 105 1 155.443 151.589 151.759   
 106 1 160.843 160.375 156.588   
 107 1 156.716 147.679 156.603   
 108 1 153.38 160.101 153.088    
 109 1 150.839 152.282 153.097   
 110 1 150.067 160.377 156.613   
 111 1 147.999 154.014 156.62    
 112 1 156.709 149.851 153.085   
 113 1 159.557 158.616 153.075   
 114 1 154.191 147.679 156.608   
 115 1 158.8 161.86 156.592      
 116 1 152.099 154.02 151.766    
 117 1 153.377 157.952 151.761   
 118 1 158.789 154.019 151.751   
 119 1 150.058 154.684 153.098   
 120 1 151.337 158.616 153.093   
 121 1 160.835 154.683 153.073   
 122 1 160.054 152.281 153.076   
 123 1 162.129 151.611 156.589   
 124 1 162.91 154.012 156.586    
 125 1 159.537 160.731 154.455   
 126 1 155.449 148.155 154.469   
 127 1 151.364 160.732 154.474   
 128 1 148.837 152.959 154.482   
 129 1 155.444 159.403 151.809   
 130 1 152.918 151.63 151.818    
 131 1 157.969 151.63 151.807    
 132 1 159.531 156.433 151.801   
 133 1 151.357 156.434 151.82    
 134 1 162.062 152.958 154.453   
 135 1 153.407 162.194 154.48    
 136 1 149.631 150.576 154.493   
 137 1 151.671 149.911 153.161   
 138 1 155.447 161.529 153.148   
 139 1 157.494 162.193 154.471   
 140 1 152.937 148.174 154.487   
 141 1 161.558 159.24 154.463    
 142 1 157.961 148.173 154.475   
 143 1 149.636 149.249 156.642   
 144 1 154.193 163.268 156.626   
 145 1 162.826 158.83 156.609    
 146 1 159.229 147.764 156.621   
 147 1 159.221 149.911 153.144   
 148 1 161.555 157.091 153.136   
 149 1 154.178 153.368 150.513   
 150 1 155.441 157.254 150.508   
 151 1 149.342 159.241 154.49    
 152 1 148.079 155.354 154.495   
 153 1 157.484 155.769 150.504   
 154 1 156.704 153.367 150.507   
 155 1 161.272 149.248 156.616   
 156 1 163.606 156.428 156.608   
 157 1 148.084 158.831 156.642   
 158 1 147.304 156.43 156.644    
 159 1 156.718 163.268 156.621   
 160 1 151.679 147.764 156.638   
 161 1 149.339 157.092 153.163   
 162 1 161.267 150.575 154.467   
 163 1 162.821 155.353 154.462   
 164 1 153.398 155.77 150.513    
 165 1 155.451 163.596 154.516   
 166 1 150.459 148.24 154.533    
 167 1 147.377 157.731 154.536   
 168 1 163.524 157.73 154.5      
 169 1 160.439 148.239 154.511   
 170 1 155.438 155.105 149.272   
 171 1 146.672 152.256 155.521   
 172 1 150.027 162.577 155.51    
 173 1 156.732 145.462 157.672   
 174 1 162.16 162.162 157.653    
 175 1 146.677 150.915 157.693   
 176 1 150.82 163.663 157.678    
 177 1 160.879 162.575 155.486   
 178 1 155.451 145.876 155.504   
 179 1 157.519 160.136 150.618   
 180 1 154.165 149.815 150.629   
 181 1 159.587 160.807 151.954   
 182 1 155.443 148.059 151.969   
 183 1 151.303 160.808 151.973   
 184 1 148.742 152.929 151.982   
 185 1 145.889 153.342 157.693   
 186 1 148.756 162.163 157.683   
 187 1 160.095 163.662 157.657   
 188 1 154.18 145.463 157.678    
 189 1 156.716 149.815 150.624   
 190 1 159.584 158.636 150.614   
 191 1 164.236 150.913 157.653   
 192 1 165.025 153.34 157.651    
 193 1 153.364 160.136 150.627   
 194 1 150.803 152.258 150.636   
 195 1 160.867 154.684 150.612   
 196 1 160.078 152.257 150.615   
 197 1 164.231 152.254 155.482   
 198 1 151.3 158.637 150.632     
 199 1 150.015 154.685 150.637   
 200 1 162.146 152.928 151.952   
 201 1 161.351 146.994 157.68    
 202 1 164.996 158.207 157.668   
 203 1 149.549 150.518 152.001   
 204 1 153.373 162.284 151.988   
 205 1 145.914 154.683 155.533   
 206 1 147.986 161.059 155.526   
 207 1 152.901 148.082 151.995   
 208 1 157.517 162.283 151.979   
 209 1 152.1 164.048 155.515     
 210 1 147.485 149.846 155.531   
 211 1 161.63 159.294 151.971    
 212 1 157.986 148.081 151.983   
 213 1 158.806 164.047 155.5     
 214 1 152.909 145.905 155.521   
 215 1 162.919 161.058 155.492   
 216 1 157.994 145.904 155.509   
 217 1 155.458 165.138 157.686   
 218 1 149.561 146.995 157.706   
 219 1 145.919 158.209 157.71    
 220 1 155.438 151.58 149.314    
 221 1 157.511 157.957 149.307   
 222 1 158.791 154.015 149.306   
 223 1 164.99 154.681 155.49     
 224 1 163.419 149.845 155.496   
 225 1 152.086 154.016 149.321   
 226 1 153.367 157.957 149.317   
 227 1 149.259 159.295 151.999   
 228 1 147.978 155.354 152.003   
 229 1 161.339 150.517 151.975   
 230 1 162.911 155.353 151.97    
 231 1 147.56 148.549 157.705    
 232 1 152.926 165.057 157.687   
 233 1 159.544 162.901 153.366   
 234 1 154.179 146.393 153.384   
 235 1 151.352 162.902 153.384   
 236 1 147.551 151.209 153.397   
 237 1 146.778 160.591 157.702   
 238 1 145.213 155.776 157.708   
 239 1 155.442 161.57 150.713    
 240 1 151.641 149.876 150.727   
 241 1 163.352 148.547 157.67    
 242 1 165.701 155.774 157.662   
 243 1 149.3 161.412 153.389     
 244 1 146.768 153.621 153.398   
 245 1 164.137 160.59 157.663    
 246 1 159.256 145.571 157.68    
 247 1 159.24 149.876 150.71     
 248 1 161.589 157.103 150.701   
 249 1 156.714 146.392 153.379   
 250 1 161.596 161.411 153.362   
 251 1 155.439 159.412 149.381   
 252 1 152.906 151.621 149.39    
 253 1 157.97 151.62 149.379     
 254 1 159.535 156.436 149.373   
 255 1 151.656 145.572 157.697   
 256 1 157.99 165.057 157.675    
 257 1 149.294 157.104 150.729   
 258 1 164.127 153.619 153.359   
 259 1 163.343 151.207 153.362   
 260 1 151.342 156.437 149.391   
 261 1 148.361 147.491 155.555   
 262 1 154.194 165.438 155.535   
 263 1 151.653 146.419 153.406   
 264 1 157.486 164.366 153.386   
 265 1 147.272 159.907 153.41    
 266 1 146.012 156.031 153.415   
 267 1 165.666 157.101 155.513   
 268 1 162.542 147.49 155.524    
 269 1 148.356 148.815 153.412   
 270 1 153.411 164.366 153.395   
 271 1 145.239 157.103 155.558   
 272 1 146.017 159.499 155.556   
 273 1 163.624 159.905 153.374   
 274 1 159.24 146.418 153.389    
 275 1 160.504 146.009 155.529   
 276 1 164.888 159.497 155.514   
 277 1 155.445 163.703 152.066   
 278 1 150.391 148.152 152.084   
 279 1 160.497 148.151 152.061   
 280 1 163.621 157.762 152.05    
 281 1 155.436 157.247 148.08    
 282 1 154.176 153.371 148.084   
 283 1 156.713 165.438 155.529   
 284 1 150.398 146.011 155.551   
 285 1 157.473 155.767 148.076   
 286 1 156.695 153.371 148.079   
 287 1 153.398 155.767 148.085   
 288 1 147.269 157.764 152.087   
 289 1 164.883 156.029 153.372   
 290 1 162.538 148.813 153.38    
 291 1 159.516 151.658 161.953   
 292 1 162.558 162.727 161.972   
 293 1 161.543 154.453 159.811   
 294 1 156.725 144.78 161.992    
 295 1 145.218 154.444 159.865   
 296 1 158.718 156.166 160.87    
 297 1 153.404 150.118 164.448   
 298 1 158.818 146.17 162.012    
 299 1 157.552 152.261 168.21    
 300 1 161.58 153.126 164.364    
 301 1 155.47 158.594 163.322    
 302 1 148.008 154.865 165.557   
 303 1 151.361 151.602 164.452   
 304 1 158.01 164.313 162.006    
 305 1 154.206 144.78 161.998    
 306 1 157.475 152.342 160.874   
 307 1 155.477 148.648 166.814   
 308 1 150.84 157.961 166.912    
 309 1 155.465 155.11 161.071    
 310 1 154.224 156.847 169.449   
 311 1 155.483 152.97 169.447    
 312 1 151.42 153.795 163.29     
 313 1 161.734 163.73 164.073    
 314 1 146.782 149.628 159.864   
 315 1 145.253 153.117 162.014   
 316 1 148.009 156.205 160.941   
 317 1 162.081 157.258 163.045   
 318 1 155.475 158.629 165.768   
 319 1 162.563 161.403 164.115   
 320 1 147.395 152.488 163.027   
 321 1 153.498 154.472 159.8     
 322 1 151.698 160.307 164.383   
 323 1 165.706 154.442 159.819   
 324 1 158.82 156.198 165.762    
 325 1 159.619 151.581 166.895   
 326 1 155.475 162.158 165.558   
 327 1 155.462 160.746 159.838   
 328 1 163.368 159.009 164.13    
 329 1 160.767 152.065 159.814   
 330 1 155.47 144.457 164.095    
 331 1 154.202 160.403 166.903   
 332 1 163.434 160.371 161.996   
 333 1 150.101 156.852 159.851   
 334 1 148.381 161.405 164.147   
 335 1 157.521 154.451 169.442   
 336 1 162.84 154.863 163.032    
 337 1 154.187 164.755 159.855   
 338 1 155.468 164.342 162.023   
 339 1 149.58 159.701 165.552    
 340 1 153.434 150.192 161.967   
 341 1 150.161 155.523 161.972   
 342 1 153.01 158.489 160.856    
 343 1 164.247 157.962 162.006   
 344 1 152.958 162.045 163.052   
 345 1 150.075 149.842 160.939   
 346 1 150.084 155.535 164.454   
 347 1 153.445 154.451 169.451   
 348 1 147.576 159.011 164.165   
 349 1 162.14 158.606 160.908    
 350 1 155.47 155.111 163.433    
 351 1 155.449 165.761 153.432   
 352 1 149.184 146.488 153.454   
 353 1 145.315 158.4 153.458     
 354 1 165.58 158.398 153.413    
 355 1 161.709 146.487 153.426   
 356 1 155.433 155.104 146.852   
 357 1 156.714 160.283 161.956   
 358 1 151.382 149.486 163.072   
 359 1 156.71 156.821 162.181    
 360 1 155.461 145.08 159.841    
 361 1 159.582 151.601 164.434   
 362 1 150.052 155.534 166.915   
 363 1 157.982 162.044 163.04    
 364 1 159.519 153.794 163.272   
 365 1 165 152.009 159.817       
 366 1 156.74 163.825 164.143    
 367 1 160.904 155.533 166.89    
 368 1 152.148 150.549 159.849   
 369 1 163.542 152.486 162.991   
 370 1 154.215 156.85 167.02     
 371 1 148.789 158.607 160.938   
 372 1 164.242 159.303 159.835   
 373 1 156.728 162.539 160.919   
 374 1 161.479 153.156 161.912   
 375 1 157.992 145.16 159.84     
 376 1 155.466 148.788 161.927   
 377 1 161.37 159.7 165.526      
 378 1 154.224 156.821 162.187   
 379 1 155.464 150.933 160.853   
 380 1 149.568 163.224 159.847   
 381 1 151.69 162.454 160.906    
 382 1 149.647 160.97 160.911    
 383 1 154.206 149.123 159.83    
 384 1 156.739 164.755 159.849   
 385 1 161.625 153.114 166.798   
 386 1 147.567 161.671 159.857   
 387 1 155.486 155.114 170.675   
 388 1 162.163 148.055 159.844   
 389 1 146.687 157.964 162.045   
 390 1 159.436 153.819 160.843   
 391 1 148.377 162.728 162.004   
 392 1 153.441 154.451 164.597   
 393 1 155.47 162.063 163.058    
 394 1 154.202 162.539 160.924   
 395 1 160.772 155.522 161.949   
 396 1 160.823 156.851 159.827   
 397 1 156.735 160.366 164.437   
 398 1 153.456 154.457 162.189   
 399 1 149.361 150.978 163.064   
 400 1 149.38 154.454 159.838    
 401 1 159.616 149.41 165.554    
 402 1 160.08 157.935 164.43     
 403 1 145.338 151.82 164.114    
 404 1 152.925 164.314 162.018   
 405 1 162.177 157.288 165.545   
 406 1 163.358 161.669 159.822   
 407 1 165.604 151.818 164.069   
 408 1 157.478 154.457 162.18    
 409 1 158.833 156.202 168.206   
 410 1 152.156 156.188 163.331   
 411 1 159.24 162.453 160.889    
 412 1 147.5 160.373 162.031     
 413 1 165.68 153.115 161.969    
 414 1 148.093 151.388 160.918   
 415 1 155.481 155.113 168.255   
 416 1 146.792 156.599 164.168   
 417 1 160.852 149.841 160.915   
 418 1 160.528 162.066 165.443   
 419 1 157.542 152.266 165.766   
 420 1 148.773 157.29 165.575    
 421 1 159.183 160.224 161.914   
 422 1 153.408 152.261 168.22    
 423 1 163.615 153.788 160.883   
 424 1 158.783 156.187 163.316   
 425 1 161.576 150.977 163.037   
 426 1 152.113 146.171 162.027   
 427 1 161.283 160.969 160.885   
 428 1 152.959 160.69 159.828    
 429 1 149.21 163.731 164.101    
 430 1 153.434 154.448 167.023   
 431 1 157.508 145.852 164.132   
 432 1 150.04 147.642 162.042    
 433 1 156.717 149.123 159.824   
 434 1 157.504 154.451 164.588   
 435 1 151.374 147.316 164.161   
 436 1 146.036 154.189 164.155   
 437 1 146.683 159.304 159.874   
 438 1 152.95 158.588 165.72     
 439 1 155.48 150.805 168.146    
 440 1 145.923 152.011 159.86    
 441 1 152.128 156.202 168.221   
 442 1 156.754 160.403 166.898   
 443 1 160.521 164.207 161.976   
 444 1 159.997 159.214 159.813   
 445 1 151.663 164.646 159.847   
 446 1 149.364 153.127 164.391   
 447 1 158.012 158.597 168.137   
 448 1 149.454 153.157 161.939   
 449 1 161.66 150.922 165.529    
 450 1 164.141 149.626 159.825   
 451 1 150.414 164.208 161.998   
 452 1 162.92 156.204 160.907    
 453 1 153.399 150.082 166.909   
 454 1 161.358 163.223 159.821   
 455 1 165.03 156.876 159.834    
 456 1 149.329 153.115 166.826   
 457 1 159.266 163.799 164.121   
 458 1 150.422 162.067 165.466   
 459 1 155.461 153.045 159.796   
 460 1 152.211 156.167 160.885   
 461 1 160.459 161.978 162.994   
 462 1 146.031 150.721 162.014   
 463 1 151.417 151.659 161.971   
 464 1 148 149.16 162.035        
 465 1 145.894 156.878 159.877   
 466 1 157.965 160.69 159.817    
 467 1 161.288 159.642 163.034   
 468 1 160.098 146.555 159.849   
 469 1 157.521 154.448 167.014   
 470 1 150.928 159.215 159.833   
 471 1 153.402 147.934 165.548   
 472 1 149.288 150.924 165.556   
 473 1 155.467 152.996 162.185   
 474 1 153.407 152.266 165.775   
 475 1 159.262 164.646 159.83    
 476 1 147.295 150.313 164.153   
 477 1 156.726 146.949 160.901   
 478 1 149.651 159.643 163.06    
 479 1 154.22 160.283 161.961    
 480 1 160.86 155.534 164.43     
 481 1 158.001 158.588 165.709   
 482 1 152.967 158.556 163.285   
 483 1 153.453 152.342 160.883   
 484 1 155.475 155.112 165.832   
 485 1 155.468 146.621 163.011   
 486 1 157.546 147.934 165.539   
 487 1 149.323 148.807 164.165   
 488 1 154.2 146.95 160.906      
 489 1 157.919 158.488 160.845   
 490 1 159.561 153.783 165.707   
 491 1 155.473 146.515 165.461   
 492 1 158.809 148.357 160.92    
 493 1 147.313 153.79 160.919    
 494 1 148.857 157.26 163.074    
 495 1 165.005 155.535 161.994   
 496 1 154.217 156.839 164.594   
 497 1 156.728 156.839 164.589   
 498 1 150.823 146.556 159.87    
 499 1 150.48 161.979 163.017    
 500 1 155.474 150.815 165.718   
 501 1 150.156 152.066 159.838   
 502 1 155.464 158.531 160.876   
 503 1 164.907 154.187 164.113   
 504 1 154.249 156.779 159.798   
 505 1 150.865 157.936 164.451   
 506 1 156.741 156.85 167.014    
 507 1 157.539 150.117 164.439   
 508 1 155.481 158.638 168.213   
 509 1 151.384 153.782 168.154   
 510 1 162.834 151.386 160.885   
 511 1 162.941 154.863 165.524   
 512 1 152.933 162.136 165.544   
 513 1 148.098 154.865 163.065   
 514 1 159.277 160.341 166.801   
 515 1 155.469 150.853 163.282   
 516 1 160.892 147.641 162.017   
 517 1 145.928 155.537 162.037   
 518 1 148.759 148.056 159.874   
 519 1 161.619 148.806 164.138   
 520 1 156.675 156.779 159.792   
 521 1 158.018 162.136 165.532   
 522 1 159.555 149.485 163.053   
 523 1 159.247 160.306 164.366   
 524 1 152.949 158.597 168.149   
 525 1 156.743 156.846 169.443   
 526 1 164.151 156.597 164.129   
 527 1 153.422 152.293 163.329   
 528 1 157.498 150.192 161.958   
 529 1 158.774 150.549 159.834   
 530 1 150.932 157.895 161.97    
 531 1 151.678 160.342 166.818   
 532 1 159.576 153.781 168.136   
 533 1 152.929 145.161 159.852   
 534 1 151.751 160.225 161.931   
 535 1 157.517 152.292 163.32    
 536 1 153.433 145.852 164.141   
 537 1 155.471 148.689 164.379   
 538 1 155.472 152.975 164.593   
 539 1 162.932 149.158 162.001   
 540 1 151.332 149.411 165.573   
 541 1 164.902 150.719 161.971   
 542 1 152.13 156.199 165.776    
 543 1 151.679 163.8 164.138     
 544 1 159.567 147.315 164.143   
 545 1 151.492 153.82 160.861    
 546 1 157.973 158.555 163.274   
 547 1 155.478 152.964 167.019   
 548 1 152.118 148.358 160.935   
 549 1 154.21 160.366 164.442    
 550 1 154.204 163.825 164.149   
 551 1 157.555 150.082 166.9     
 552 1 153.425 148.025 163.056   
 553 1 160.115 157.96 166.891    
 554 1 151.335 151.582 166.913   
 555 1 151.388 153.784 165.726   
 556 1 163.65 152.454 165.44     
 557 1 147.298 152.456 165.477   
 558 1 160.001 157.894 161.949   
 559 1 157.425 154.471 159.791   
 560 1 157.511 148.024 163.047   
 561 1 163.647 150.311 164.117   
